REMARK SMILES CCCc1ccccc1O
REMARK SMILES IDX 6 1 7 2 8 3 9 4 5 5 4 6 3 7 2 8 1 9 10 10
REMARK H PARENT 10 11
ROOT
ATOM      1  C   UNL     1      -2.092  -1.458   0.090  1.00  0.00    +0.001 A 
ATOM      2  C   UNL     1      -2.734  -0.255   0.317  1.00  0.00    +0.004 A 
ATOM      3  C   UNL     1      -2.034   0.932   0.223  1.00  0.00    +0.046 A 
ATOM      4  C   UNL     1      -0.686   0.916  -0.102  1.00  0.00    +0.118 A 
ATOM      5  C   UNL     1      -0.748  -1.477  -0.234  1.00  0.00    +0.007 A 
ATOM      6  C   UNL     1      -0.043  -0.293  -0.330  1.00  0.00    -0.006 A 
ENDROOT
BRANCH   6   7
ATOM      7  C   UNL     1       1.422  -0.313  -0.683  1.00  0.00    +0.039 C 
BRANCH   7   8
ATOM      8  C   UNL     1       2.256  -0.280   0.599  1.00  0.00    +0.001 C 
ATOM      9  C   UNL     1       3.743  -0.301   0.241  1.00  0.00    +0.004 C 
ENDBRANCH   7   8
ENDBRANCH   6   7
BRANCH   4  10
ATOM     10  O   UNL     1       0.005   2.082  -0.196  1.00  0.00    -0.508 OA
ATOM     11  H   UNL     1       0.411   2.368   0.634  1.00  0.00    +0.293 HD
ENDBRANCH   4  10
TORSDOF 3
