REMARK SMILES c1ccccc1
REMARK SMILES IDX 3 1 2 2 1 3 6 4 5 5 4 6
REMARK H PARENT
ROOT
ATOM      1  C   UNL     1       0.675  -1.206  -0.000  1.00  0.00    +0.000 A 
ATOM      2  C   UNL     1      -0.707  -1.188   0.000  1.00  0.00    +0.000 A 
ATOM      3  C   UNL     1      -1.382   0.019  -0.000  1.00  0.00    +0.000 A 
ATOM      4  C   UNL     1      -0.675   1.206  -0.000  1.00  0.00    +0.000 A 
ATOM      5  C   UNL     1       0.707   1.188   0.001  1.00  0.00    +0.000 A 
ATOM      6  C   UNL     1       1.382  -0.019  -0.001  1.00  0.00    +0.000 A 
ENDROOT
TORSDOF 0
