REMARK SMILES Oc1ccccc1
REMARK SMILES IDX 1 1 2 3 3 4 7 5 4 6 6 7 5 8
REMARK H PARENT 1 2
ROOT
ATOM      1  O   UNL     1      -0.000  -0.037   2.271  1.00  0.00    -0.508 OA
ATOM      2  H   UNL     1       0.000   0.884   2.562  1.00  0.00    +0.293 HD
ENDROOT
BRANCH   1   3
ATOM      3  C   UNL     1       0.000  -0.020   0.912  1.00  0.00    +0.115 A 
ATOM      4  C   UNL     1       1.200  -0.013   0.217  1.00  0.00    +0.046 A 
ATOM      5  C   UNL     1      -1.200  -0.016   0.217  1.00  0.00    +0.046 A 
ATOM      6  C   UNL     1       1.198   0.004  -1.163  1.00  0.00    +0.004 A 
ATOM      7  C   UNL     1      -1.198   0.007  -1.163  1.00  0.00    +0.004 A 
ATOM      8  C   UNL     1       0.000   0.013  -1.854  1.00  0.00    +0.000 A 
ENDBRANCH   1   3
TORSDOF 1
